Program Version,EnergyPlus-Windows-64 8.1.0.009, YMD=2016.12.26 19:01
1,5,Environment Title[],Latitude[deg],Longitude[deg],Time Zone[],Elevation[m]
2,6,Day of Simulation[],Month[],Day of Month[],DST Indicator[1=yes 0=no],Hour[],StartMinute[],EndMinute[],DayType
3,3,Cumulative Day of Simulation[],Month[],Day of Month[],DST Indicator[1=yes 0=no],DayType  ! When Daily Report Variables Requested
4,2,Cumulative Days of Simulation[],Month[]  ! When Monthly Report Variables Requested
5,1,Cumulative Days of Simulation[] ! When Run Period Report Variables Requested
81,9,1FLOOR:ZONE7,Zone Lights Electric Energy [J] !Monthly  [Value,Min,Day,Hour,Minute,Max,Day,Hour,Minute]
145,9,1FLOOR:ZONE7,Zone Electric Equipment Electric Energy [J] !Monthly  [Value,Min,Day,Hour,Minute,Max,Day,Hour,Minute]
273,9,1FLOOR:ZONE7,Zone Air System Sensible Heating Energy [J] !Monthly  [Value,Min,Day,Hour,Minute,Max,Day,Hour,Minute]
294,9,1FLOOR:ZONE7,Zone Air System Sensible Cooling Energy [J] !Monthly  [Value,Min,Day,Hour,Minute,Max,Day,Hour,Minute]
End of Data Dictionary
1,84TYPE_2CORE,  37.48, 126.55,   9.00,  70.00
4,31, 1
81,571682383.200003,0.0, 1, 1,60,1862157.6, 1, 8,60
145,414094040.995386,82764.519156, 1, 1,60,1299600., 1, 8,60
273,9021783603.59443,0.0, 1, 1, 3,24064135.9365185, 1, 8,60
294,0.0,0.0, 1, 1, 3,0.0, 1, 1, 3
4,59, 2
81,513955497.600003,0.0, 1, 1,60,1862157.6, 1, 8,60
145,372481716.032623,82764.519156, 1, 1,60,1299600., 1, 9,60
273,7101487144.1249,0.0, 1,11, 3,24180846.2112708,25, 8,60
294,0.0,0.0, 1, 1,60,0.0, 1, 1,60
4,90, 3
81,553060807.200003,0.0, 1, 1,60,1862157.6, 1, 8,60
145,402169053.280515,82764.519156, 1, 1,60,1299600., 1, 9,60
273,5543559829.18997,0.0, 1,11, 3,18510439.8608342,11, 8,60
294,0.0,0.0, 1, 1,60,0.0, 1, 1,60
4,120, 4
81,577268856.000003,0.0, 1, 1,60,1862157.6, 1, 8,60
145,416123249.627626,82764.519156, 1, 1,60,1299600., 1, 8,60
273,2688091041.81717,0.0, 1, 1, 5,13034344.7594221,16, 8,60
294,0.0,0.0, 1, 1, 5,0.0, 1, 1, 5
4,151, 5
81,553060807.200003,0.0, 1, 1,60,1862157.6, 1, 8,60
145,402169053.280515,82764.519156, 1, 1,60,1299600., 1, 9,60
273,965965998.657225,0.0, 1,11,12,7411807.93326108, 1, 6,60
294,163124.317712111,0.0, 1, 1,60,62016.7453059478,27,18,60
4,181, 6
81,540025704.000003,0.0, 1, 1,60,1862157.6, 1, 8,60
145,392273274.197885,82764.519156, 1, 1,60,1299600., 1, 9,60
273,78225771.8394365,0.0, 1, 1,30,2818382.68375396,13, 6,60
294,86118551.819812,0.0, 1, 1,30,4993660.74028682,18,17,60
4,212, 7
81,590303959.200004,0.0, 1, 1,60,1862157.6, 1, 8,60
145,426019028.710256,82764.519156, 1, 1,60,1299600., 1, 8,60
273,4476545.12847098,0.0, 1, 1,20,545691.638681271, 5, 6,60
294,375533623.553109,0.0, 1, 1,20,6332918.25667084,30,17,60
4,243, 8
81,553060807.200003,0.0, 1, 1,60,1862157.6, 1, 8,60
145,402169053.280515,82764.519156, 1, 1,60,1299600., 1, 9,60
273,8877.19678569862,0.0, 1, 1,30,4015.36598465973, 4,18, 6
294,513676434.120051,0.0, 1, 1,30,7632795.91071867,12,16,60
4,273, 9
81,558647280.000003,0.0, 1, 1,60,1862157.6, 1, 8,60
145,404198261.912755,82764.519156, 1, 1,60,1299600., 1, 9,60
273,149895415.367235,0.0, 1, 1,20,5075628.02098607,29, 7,60
294,129167342.284173,0.0, 1, 1,20,3387726.01805243, 2,16,60
4,304,10
81,571682383.200003,0.0, 1, 1,60,1862157.6, 1, 8,60
145,414094040.995386,82764.519156, 1, 1,60,1299600., 1, 8,60
273,1562592614.73495,0.0, 1, 1,15,11390612.5373796,27, 6,60
294,0.0,0.0, 1, 1,15,0.0, 1, 1,15
4,334,11
81,540025704.000003,0.0, 1, 1,60,1862157.6, 1, 8,60
145,392273274.197884,82764.519156, 1, 1,60,1299600., 1, 9,60
273,4495243755.41094,0.0, 1,11, 8,20452188.9980228,19, 8,60
294,0.0,0.0, 1, 1,30,0.0, 1, 1,30
4,365,12
81,590303959.200004,0.0, 1, 1,60,1862157.6, 1, 8,60
145,426019028.710256,82764.519156, 1, 1,60,1299600., 1, 9,60
273,7824178189.18893,0.0, 1,11, 5,24093424.0274628,17, 9,60
294,0.0,0.0, 1, 1,60,0.0, 1, 1,60
End of Data
 Number of Records Written=          48
